# vtk DataFile Version 2.0
Point Cloud with Scalar Solution
ASCII
DATASET POLYDATA
POINTS 1946 float
0.000000 0.000000 0.000000
1.000000 0.000000 0.000000
1.000000 1.000000 0.000000
0.000000 1.000000 0.000000
0.000000 0.000000 1.000000
1.000000 0.000000 1.000000
1.000000 1.000000 1.000000
0.000000 1.000000 1.000000
0.125000 0.000000 0.000000
0.250000 0.000000 0.000000
0.375000 0.000000 0.000000
0.500000 0.000000 0.000000
0.625000 0.000000 0.000000
0.750000 0.000000 0.000000
0.875000 0.000000 0.000000
0.062500 0.000000 0.000000
0.187500 0.000000 0.000000
0.312500 0.000000 0.000000
0.437500 0.000000 0.000000
0.562500 0.000000 0.000000
0.687500 0.000000 0.000000
0.812500 0.000000 0.000000
0.937500 0.000000 0.000000
1.000000 0.125000 0.000000
1.000000 0.250000 0.000000
1.000000 0.375000 0.000000
1.000000 0.500000 0.000000
1.000000 0.625000 0.000000
1.000000 0.750000 0.000000
1.000000 0.875000 0.000000
1.000000 0.062500 0.000000
1.000000 0.187500 0.000000
1.000000 0.312500 0.000000
1.000000 0.437500 0.000000
1.000000 0.562500 0.000000
1.000000 0.687500 0.000000
1.000000 0.812500 0.000000
1.000000 0.937500 0.000000
0.875000 1.000000 0.000000
0.750000 1.000000 0.000000
0.625000 1.000000 0.000000
0.500000 1.000000 0.000000
0.375000 1.000000 0.000000
0.250000 1.000000 0.000000
0.125000 1.000000 0.000000
0.937500 1.000000 0.000000
0.812500 1.000000 0.000000
0.687500 1.000000 0.000000
0.562500 1.000000 0.000000
0.437500 1.000000 0.000000
0.312500 1.000000 0.000000
0.187500 1.000000 0.000000
0.062500 1.000000 0.000000
0.000000 0.875000 0.000000
0.000000 0.750000 0.000000
0.000000 0.625000 0.000000
0.000000 0.500000 0.000000
0.000000 0.375000 0.000000
0.000000 0.250000 0.000000
0.000000 0.125000 0.000000
0.000000 0.937500 0.000000
0.000000 0.812500 0.000000
0.000000 0.687500 0.000000
0.000000 0.562500 0.000000
0.000000 0.437500 0.000000
0.000000 0.312500 0.000000
0.000000 0.187500 0.000000
0.000000 0.062500 0.000000
0.125000 0.000000 1.000000
0.250000 0.000000 1.000000
0.375000 0.000000 1.000000
0.500000 0.000000 1.000000
0.625000 0.000000 1.000000
0.750000 0.000000 1.000000
0.875000 0.000000 1.000000
0.062500 0.000000 1.000000
0.187500 0.000000 1.000000
0.312500 0.000000 1.000000
0.437500 0.000000 1.000000
0.562500 0.000000 1.000000
0.687500 0.000000 1.000000
0.812500 0.000000 1.000000
0.937500 0.000000 1.000000
1.000000 0.125000 1.000000
1.000000 0.250000 1.000000
1.000000 0.375000 1.000000
1.000000 0.500000 1.000000
1.000000 0.625000 1.000000
1.000000 0.750000 1.000000
1.000000 0.875000 1.000000
1.000000 0.062500 1.000000
1.000000 0.187500 1.000000
1.000000 0.312500 1.000000
1.000000 0.437500 1.000000
1.000000 0.562500 1.000000
1.000000 0.687500 1.000000
1.000000 0.812500 1.000000
1.000000 0.937500 1.000000
0.875000 1.000000 1.000000
0.750000 1.000000 1.000000
0.625000 1.000000 1.000000
0.500000 1.000000 1.000000
0.375000 1.000000 1.000000
0.250000 1.000000 1.000000
0.125000 1.000000 1.000000
0.937500 1.000000 1.000000
0.812500 1.000000 1.000000
0.687500 1.000000 1.000000
0.562500 1.000000 1.000000
0.437500 1.000000 1.000000
0.312500 1.000000 1.000000
0.187500 1.000000 1.000000
0.062500 1.000000 1.000000
0.000000 0.875000 1.000000
0.000000 0.750000 1.000000
0.000000 0.625000 1.000000
0.000000 0.500000 1.000000
0.000000 0.375000 1.000000
0.000000 0.250000 1.000000
0.000000 0.125000 1.000000
0.000000 0.937500 1.000000
0.000000 0.812500 1.000000
0.000000 0.687500 1.000000
0.000000 0.562500 1.000000
0.000000 0.437500 1.000000
0.000000 0.312500 1.000000
0.000000 0.187500 1.000000
0.000000 0.062500 1.000000
0.000000 0.000000 0.125000
0.000000 0.000000 0.250000
0.000000 0.000000 0.375000
0.000000 0.000000 0.500000
0.000000 0.000000 0.625000
0.000000 0.000000 0.750000
0.000000 0.000000 0.875000
0.000000 0.000000 0.062500
0.000000 0.000000 0.187500
0.000000 0.000000 0.312500
0.000000 0.000000 0.437500
0.000000 0.000000 0.562500
0.000000 0.000000 0.687500
0.000000 0.000000 0.812500
0.000000 0.000000 0.937500
1.000000 0.000000 0.125000
1.000000 0.000000 0.250000
1.000000 0.000000 0.375000
1.000000 0.000000 0.500000
1.000000 0.000000 0.625000
1.000000 0.000000 0.750000
1.000000 0.000000 0.875000
1.000000 0.000000 0.062500
1.000000 0.000000 0.187500
1.000000 0.000000 0.312500
1.000000 0.000000 0.437500
1.000000 0.000000 0.562500
1.000000 0.000000 0.687500
1.000000 0.000000 0.812500
1.000000 0.000000 0.937500
1.000000 1.000000 0.125000
1.000000 1.000000 0.250000
1.000000 1.000000 0.375000
1.000000 1.000000 0.500000
1.000000 1.000000 0.625000
1.000000 1.000000 0.750000
1.000000 1.000000 0.875000
1.000000 1.000000 0.062500
1.000000 1.000000 0.187500
1.000000 1.000000 0.312500
1.000000 1.000000 0.437500
1.000000 1.000000 0.562500
1.000000 1.000000 0.687500
1.000000 1.000000 0.812500
1.000000 1.000000 0.937500
0.000000 1.000000 0.125000
0.000000 1.000000 0.250000
0.000000 1.000000 0.375000
0.000000 1.000000 0.500000
0.000000 1.000000 0.625000
0.000000 1.000000 0.750000
0.000000 1.000000 0.875000
0.000000 1.000000 0.062500
0.000000 1.000000 0.187500
0.000000 1.000000 0.312500
0.000000 1.000000 0.437500
0.000000 1.000000 0.562500
0.000000 1.000000 0.687500
0.000000 1.000000 0.812500
0.000000 1.000000 0.937500
0.323636 0.867669 0.000000
0.202023 0.893710 0.000000
0.241107 0.799248 0.000000
0.867985 0.676274 0.000000
0.893581 0.797606 0.000000
0.799210 0.758052 0.000000
0.111833 0.329287 0.000000
0.103230 0.207744 0.000000
0.207110 0.266181 0.000000
0.670245 0.111755 0.000000
0.791963 0.103196 0.000000
0.732924 0.207016 0.000000
0.785667 0.860884 0.000000
0.679514 0.895010 0.000000
0.884041 0.922248 0.000000
0.855360 0.212928 0.000000
0.894975 0.320196 0.000000
0.920387 0.115187 0.000000
0.138760 0.785809 0.000000
0.104517 0.679852 0.000000
0.077630 0.884086 0.000000
0.212899 0.144079 0.000000
0.319831 0.104387 0.000000
0.115188 0.079471 0.000000
0.192414 0.592381 0.000000
0.083098 0.576555 0.000000
0.219046 0.704818 0.000000
0.591269 0.807909 0.000000
0.575025 0.916411 0.000000
0.704505 0.780602 0.000000
0.792429 0.393459 0.000000
0.916411 0.424975 0.000000
0.791912 0.281974 0.000000
0.393098 0.206640 0.000000
0.423445 0.083098 0.000000
0.282036 0.206692 0.000000
0.129453 0.465138 0.000000
0.466786 0.868178 0.000000
0.865119 0.530646 0.000000
0.531997 0.132282 0.000000
0.427585 0.433055 0.000000
0.428697 0.572317 0.000000
0.292264 0.497813 0.000000
0.500000 0.500000 0.000000
0.495969 0.708679 0.000000
0.570028 0.571293 0.000000
0.704021 0.502072 0.000000
0.567365 0.429637 0.000000
0.500143 0.296209 0.000000
0.312485 0.411836 0.000000
0.392138 0.323575 0.000000
0.302096 0.300234 0.000000
0.587953 0.313045 0.000000
0.676160 0.392923 0.000000
0.699081 0.302452 0.000000
0.318771 0.612164 0.000000
0.319368 0.743239 0.000000
0.612136 0.681261 0.000000
0.742999 0.679872 0.000000
0.682059 0.603809 0.000000
0.396263 0.683216 0.000000
0.620391 0.227127 0.000000
0.225874 0.378415 0.000000
0.774985 0.592740 0.000000
0.406605 0.776578 0.000000
0.282371 0.833458 0.000000
0.221565 0.846479 0.000000
0.262830 0.880689 0.000000
0.226012 0.946855 0.000000
0.286818 0.933834 0.000000
0.349318 0.933834 0.000000
0.833598 0.717163 0.000000
0.846396 0.777829 0.000000
0.880783 0.736940 0.000000
0.946790 0.773803 0.000000
0.933992 0.713137 0.000000
0.933992 0.650637 0.000000
0.159471 0.297734 0.000000
0.155170 0.236963 0.000000
0.107531 0.268516 0.000000
0.051615 0.228872 0.000000
0.055916 0.289644 0.000000
0.055916 0.352144 0.000000
0.701584 0.159385 0.000000
0.762443 0.155106 0.000000
0.731104 0.107476 0.000000
0.770981 0.051598 0.000000
0.710122 0.055878 0.000000
0.647622 0.055878 0.000000
0.732591 0.877947 0.000000
0.714757 0.947505 0.000000
0.767834 0.930442 0.000000
0.817021 0.961124 0.000000
0.834854 0.891566 0.000000
0.652257 0.947505 0.000000
0.875167 0.266562 0.000000
0.947487 0.285098 0.000000
0.927680 0.231464 0.000000
0.960194 0.182594 0.000000
0.887874 0.164058 0.000000
0.947487 0.347598 0.000000
0.121638 0.732830 0.000000
0.052258 0.714926 0.000000
0.069380 0.767904 0.000000
0.038815 0.817043 0.000000
0.108195 0.834948 0.000000
0.052258 0.652426 0.000000
0.266365 0.124233 0.000000
0.284916 0.052194 0.000000
0.231450 0.072040 0.000000
0.182594 0.039735 0.000000
0.164044 0.111775 0.000000
0.347416 0.052194 0.000000
0.856175 0.109192 0.000000
0.897694 0.057594 0.000000
0.833481 0.051598 0.000000
0.163512 0.946855 0.000000
0.137756 0.584468 0.000000
0.093808 0.628203 0.000000
0.148465 0.636117 0.000000
0.161781 0.692335 0.000000
0.205730 0.648599 0.000000
0.823661 0.158062 0.000000
0.946790 0.836303 0.000000
0.583147 0.862160 0.000000
0.627270 0.905710 0.000000
0.635391 0.851460 0.000000
0.692009 0.837806 0.000000
0.647887 0.794256 0.000000
0.109209 0.143607 0.000000
0.057594 0.102235 0.000000
0.051615 0.166372 0.000000
0.854420 0.409217 0.000000
0.905693 0.372586 0.000000
0.843702 0.356828 0.000000
0.843443 0.301085 0.000000
0.792170 0.337717 0.000000
0.158065 0.175912 0.000000
0.408272 0.144869 0.000000
0.371638 0.093743 0.000000
0.356465 0.155513 0.000000
0.300933 0.155539 0.000000
0.337567 0.206666 0.000000
0.160933 0.528760 0.000000
0.106276 0.520847 0.000000
0.064727 0.482569 0.000000
0.041549 0.538277 0.000000
0.529027 0.838044 0.000000
0.520905 0.892295 0.000000
0.483393 0.934089 0.000000
0.537512 0.958205 0.000000
0.828774 0.462053 0.000000
0.890765 0.477811 0.000000
0.932559 0.515323 0.000000
0.958205 0.462488 0.000000
0.462548 0.169461 0.000000
0.477721 0.107690 0.000000
0.515999 0.066141 0.000000
0.461723 0.041549 0.000000
0.359924 0.465434 0.000000
0.360481 0.535065 0.000000
0.428141 0.502686 0.000000
0.464349 0.536159 0.000000
0.463792 0.466528 0.000000
0.210858 0.481476 0.000000
0.242339 0.545097 0.000000
0.532999 0.639986 0.000000
0.499363 0.571805 0.000000
0.462333 0.640498 0.000000
0.535014 0.535647 0.000000
0.543619 0.758294 0.000000
0.481378 0.788429 0.000000
0.635693 0.465855 0.000000
0.568697 0.500465 0.000000
0.637025 0.536683 0.000000
0.533683 0.464819 0.000000
0.748225 0.447766 0.000000
0.784570 0.516359 0.000000
[...]
POINT_DATA 1946
SCALARS solution float 1
LOOKUP_TABLE default
0.057672
0.324826
0.759049
0.031715
0.007009
0.166606
0.175986
0.016865
-0.263118
-0.092587
-0.362149
-0.240767
-0.311668
-0.482440
-0.539130
-0.200317
0.211285
-0.212293
-0.554200
-0.362703
-0.527734
-0.659268
3.260648
-2.747721
-0.407346
-0.958988
-0.426010
-0.470120
-0.572751
-0.621407
2.546139
1.845583
0.032457
-0.769334
-0.018875
-0.373903
-0.515275
4.929804
-3.089594
-0.332935
-0.671086
-0.184145
-0.130086
-0.126817
-0.032251
4.051697
1.175654
-0.410013
-0.500708
-0.224788
-0.266805
-0.198558
-0.126755
0.042541
-0.009158
0.007524
-0.032858
0.044299
0.011367
-0.008094
-0.673699
-0.706671
-0.419271
-0.222185
-0.629552
-0.500514
-0.367316
-0.535543
-0.301650
-0.070852
-0.403013
-0.233534
-0.299465
-0.474544
-1.151113
-0.159819
0.251557
-0.203966
-0.355545
-0.278142
-0.534679
-0.627229
2.334745
-2.791696
-0.248737
-1.017086
-0.421317
-0.345573
-0.551933
-1.283532
2.584724
1.280346
-0.196075
-0.543833
0.292634
-0.301206
-0.324202
2.595636
-2.644119
-0.199518
-0.653506
-0.192154
-0.140856
-0.138567
-0.118201
2.689983
0.671169
-0.478903
-0.504202
-0.233086
-0.314970
-0.206668
-0.172853
0.042647
-0.041284
-0.013859
-0.004684
-0.017678
-0.016679
-0.003636
-0.271170
-0.520644
-0.444877
-0.348012
-0.701155
-0.640149
-0.536545
-0.321557
0.001421
0.055286
0.058387
0.016791
-0.013317
0.000706
0.023445
-0.417907
-0.034441
-0.384326
-0.490471
-0.744817
-0.404912
-0.636245
-0.238990
-3.021427
-0.203992
-1.046059
-1.584478
-0.223717
-0.679281
-1.392584
2.931653
1.263806
-0.120833
-0.689143
-0.309992
-0.415535
-0.080111
2.188735
-4.229556
-1.435331
-0.836835
-1.773560
-0.284588
-0.703783
-1.445901
4.524511
0.945666
0.397750
-0.791316
-0.755017
-0.579776
-0.040842
2.139010
-0.090226
0.039836
0.031940
0.031830
0.016085
-0.025465
-0.028680
0.228696
-0.565905
-0.578450
-0.596679
-0.647996
-0.448988
-0.601131
-0.295947
-0.065268
-0.078578
-0.004746
-0.159422
-0.320570
-0.019074
0.017431
0.019489
0.001139
-0.218799
-0.266126
-0.019235
-0.160118
-0.172914
0.514660
-0.165425
-0.544017
0.164260
0.006578
0.015512
0.029262
-0.035967
-0.169264
0.054937
0.001991
0.019943
0.000865
-0.009304
-0.323091
-0.013915
-0.033262
-1.138938
-0.039609
-0.012710
-0.461225
-0.008686
0.014615
-0.064192
-0.131380
-0.078686
0.000090
0.000118
0.001384
-0.000390
-0.001442
-0.000075
-0.005273
-0.000237
-0.004128
0.000328
-0.000450
-0.000810
-0.001091
-0.000721
-0.005908
0.000304
-0.002086
-0.000182
-0.007533
-0.001841
-0.000803
-0.012669
0.002259
-0.013590
-0.005646
0.009884
-0.003744
-0.110257
0.504165
-0.269243
0.467610
0.052120
0.033828
-0.386743
1.601325
-0.688034
0.781984
-0.002188
0.008437
-0.036501
0.019857
0.045400
0.040380
0.019616
0.050626
-0.384596
1.596097
-0.719967
1.031060
-0.856412
-0.457615
2.792494
-8.091052
0.766676
0.160533
-0.874594
-0.177473
2.330741
-6.820568
0.683852
0.603517
-0.001359
0.047706
-0.079606
0.199518
-0.049209
0.038366
-0.164550
-0.111015
0.454460
-1.138135
0.103086
0.327450
-0.687495
1.907868
-1.009809
-0.256937
0.008989
-0.025211
-0.002789
-0.007026
-0.003620
-0.161142
-1.118628
0.068110
-0.511493
0.039904
0.163906
-0.091203
-0.100109
0.139720
-0.006491
0.196896
-1.426929
0.141263
0.188758
-0.189639
-0.021485
0.092932
-0.582724
0.061133
0.019724
-0.060605
0.003999
-0.051787
0.089334
-0.029249
-0.020345
-0.187657
0.772216
-0.642848
-0.051752
-0.526232
1.255142
-0.690838
0.002070
-0.323535
0.694572
-0.175038
-0.000864
-0.002575
-0.002529
-0.002538
-0.003093
-0.007312
-0.003289
-0.001802
-0.003086
-0.002576
-0.003489
-0.010324
-0.005601
-0.004531
-0.002681
-0.003356
-0.003645
-0.011868
-0.002649
-0.002451
-0.003639
-0.002308
-0.016294
-0.012094
-1.061083
2.921931
-0.013065
0.002058
-0.001752
0.000375
-0.073970
-0.156881
-0.049008
0.147963
-0.023028
0.235240
-0.076765
-0.050824
0.089613
-0.012198
-0.013085
0.011066
-0.003218
-0.001361
-0.003676
11.940384
-0.009508
-0.000792
7.785620
-0.004376
0.000289
-0.006479
-0.108239
-0.023174
-0.003493
1.022600
-0.003015
-0.002124
-0.000232
-0.008514
0.010551
-0.034747
-11.782001
-7.015338
-0.364187
-0.002877
-0.003754
-0.002905
-0.002420
1.404339
0.007981
0.009669
-0.003702
-0.012790
-0.006897
0.021899
-0.003200
-0.003726
-0.005592
-0.005215
3.797253
-0.003018
-0.003494
-0.003232
-0.023909
1.125758
-0.007565
-0.035682
-0.002980
-0.010284
-0.020925
0.004197
-0.006181
0.058584
-0.004479
0.006448
-0.003668
-0.363754
-0.506936
-0.192307
-0.009407
-0.004819
-0.004464
-0.002111
-0.789751
-0.099169
-0.039254
0.043330
-0.002330
-0.022062
-0.071767
-0.017772
-0.014319
-0.001368
-0.047116
-0.003179
-0.017549
-0.009005
-0.001115
-0.002800
-0.007903
0.002357
-0.009029
0.002443
-0.004050
0.000844
-0.008801
-0.005724
-0.017036
0.031632
-0.051458
-0.073323
-0.005394
-0.179303
-0.352575
-0.022526
0.028144
0.029734
0.003717
-0.222141
-0.273823
-0.011361
-0.009938
-0.186619
-0.004808
-0.016758
-0.296474
-0.009097
0.004613
0.011567
0.038126
-0.011963
-0.082195
0.055597
0.003540
0.029559
0.000814
-0.015695
-0.343481
-0.007334
-0.024362
-0.630464
-0.018635
-0.007854
-0.255348
-0.003759
0.023108
-0.086056
-0.197840
-0.105665
0.000079
0.000212
0.001961
-0.000287
-0.002078
-0.000086
-0.006784
-0.000351
-0.004863
0.000492
-0.000559
0.000818
-0.000805
-0.001821
-0.000246
0.000357
-0.000935
-0.000423
-0.005285
-0.001987
-0.000680
-0.014917
0.003057
-0.017228
-0.004602
-0.116124
-0.000689
0.020220
-0.256658
0.493911
0.399806
-0.434242
0.066972
0.077397
-0.723286
1.697347
0.897146
-0.052970
0.013421
-0.000321
0.078077
0.019872
0.008912
-0.402554
0.069002
0.020097
-0.799371
1.729706
1.181593
1.972547
-0.134397
-0.659276
0.687730
-6.153882
0.119965
2.202206
-0.215149
-0.745530
0.721742
-6.739428
0.266706
-0.047915
0.056009
-0.015218
-0.016957
0.019283
0.017117
0.469629
-0.124879
-0.144706
0.134338
-1.235385
0.162962
-1.116014
1.432024
-0.610432
-0.256652
0.000557
-0.034873
0.008431
-0.006009
-0.002950
-0.192370
-1.076967
0.059130
-0.591642
0.090524
-0.085136
0.123901
0.033518
0.127198
-0.116218
0.046788
-0.904351
0.179645
-0.100400
0.163919
-0.027933
0.026539
-0.379091
0.078373
-0.032229
0.022746
-0.037041
0.000458
-0.040765
0.068096
-0.204630
-0.025092
-0.652732
0.812681
-0.411331
-0.023192
-0.879918
1.370943
-0.236693
0.004015
-0.377578
0.748441
-0.001702
-0.001595
-0.002732
-0.002872
-0.002536
-0.002601
-0.007605
-0.003158
-0.002220
-0.001318
-0.003150
-0.003030
-0.013776
-0.003959
-0.001920
-0.002994
-0.002975
-0.010917
-0.019204
-0.001456
-0.001838
-0.004887
-0.010924
-0.023331
1.423392
-0.643360
-0.009763
-0.011431
0.001663
-0.002397
-0.161169
-0.104445
0.114790
-0.032473
0.143250
-0.011768
-0.072260
0.088145
-0.035965
-0.013660
0.010973
-0.009337
-0.000971
-0.000958
-0.004620
8.148602
-0.002360
-0.006106
8.580382
-0.004148
0.001458
-0.005779
0.034291
-0.007441
-0.013909
1.150445
-0.002632
-0.002805
-0.004988
-0.000036
0.003223
-0.057456
-7.122703
-7.065387
-0.461966
-0.002114
-0.002135
-0.002706
-0.001921
0.730985
0.012470
0.006177
-0.010573
-0.000793
0.003696
-0.003077
-0.003022
-0.004684
-0.003496
-0.002833
1.889948
-0.001704
-0.003285
-0.002539
-0.031453
1.255778
-0.040201
0.000906
0.002446
-0.011238
0.031032
-0.008263
0.005595
0.101424
0.000497
-0.003631
-0.000970
-0.372507
-0.244650
-0.478803
-0.007119
-0.001489
-0.006770
-0.003335
-0.092126
-0.798183
-0.047006
0.017026
-0.009327
0.000593
-0.047807
-0.017732
-0.003523
-0.008490
-0.061172
-0.001648
-0.012630
-0.002873
-0.004535
-0.002520
-0.005121
-0.014912
-0.006438
0.006641
-0.004655
0.007278
-0.010074
-0.012718
-0.021812
0.050422
-0.029868
-0.413167
-0.230613
-0.001490
0.011377
0.007420
-0.245666
-0.268471
-0.014081
-0.007361
-0.118715
-0.043430
-0.026954
-0.063925
-0.002552
-0.002108
-0.957326
-0.306336
-1.191420
-0.863040
-0.143223
-0.073989
0.032465
0.013256
-0.091057
-0.360556
-0.105888
-0.271535
-0.051975
-0.013540
-0.002332
0.033744
0.003214
0.001611
-0.010860
-0.250075
-0.008576
-0.005845
-0.000008
0.000282
0.000974
0.015331
-0.080095
-0.000102
0.000366
-0.000197
-0.012474
0.000117
-0.003721
-0.004371
-0.041109
-0.168895
-0.003450
-1.283277
-0.029426
-0.022231
-0.001297
-0.001298
-0.000083
0.000639
-0.000486
-0.001663
-0.001807
-0.000748
0.000083
-0.014505
-0.004912
-0.057148
-0.340971
0.036970
-0.390630
1.220553
0.765592
-0.003669
-0.043373
0.006320
0.046196
0.042362
0.027434
-0.458374
0.048219
0.034130
-0.206079
1.241074
0.597324
0.014682
-0.147237
0.029643
-0.124329
0.578510
0.091431
-0.242862
0.030449
0.036893
-0.027721
0.007889
-0.523020
-1.104982
3.300925
0.349399
0.413535
-2.862114
-0.065786
0.360604
-0.099913
0.271167
0.026796
-0.092676
0.007323
-0.021323
2.974189
-1.469087
-0.524535
0.508646
-7.595387
2.059589
2.599983
-0.474209
-0.680557
0.137443
0.140151
0.013742
-0.084880
0.055674
0.090018
-1.445667
-0.014067
-0.010065
-0.008693
-0.007938
0.011990
-0.012133
-0.000828
0.080954
-0.010569
-0.008105
-0.208835
-0.369848
0.035321
0.069917
-0.007300
-0.038032
-0.797091
-0.002057
-0.002515
-0.001199
-0.493889
-0.027683
0.014196
-0.087042
0.106626
0.064776
0.011487
-0.256510
0.642937
-0.233729
-0.006184
-0.003345
0.001055
-0.002697
-0.003978
-0.350768
-0.035108
-0.018243
-0.001805
-0.002048
-0.004114
-0.002228
-0.008306
-0.005881
-0.002888
-0.001735
-0.003691
-0.015641
-0.013313
-0.006152
-0.001113
-0.002946
-0.202971
0.017244
0.021697
0.181220
0.254573
-0.140914
0.338499
0.100198
-0.037422
0.002691
-0.004012
-0.071153
-0.105568
0.060193
-0.023482
1.981312
-0.808590
-0.014549
0.004107
0.009013
-0.010992
-0.018022
0.004313
0.003175
0.000142
4.665763
-0.811786
9.299441
-0.835245
0.019892
-0.059581
0.005230
0.471736
0.004204
-0.062890
-0.001270
-0.005262
-0.004509
-0.005113
-0.013771
-0.307388
2.335612
-0.378471
0.370776
-0.031547
0.238583
-0.318380
-0.211974
-4.786945
-7.757048
-0.003929
-0.001600
-0.002451
-0.002437
-0.004042
-0.002732
-0.002035
-0.008481
-0.002242
-0.000391
-0.010854
-0.001791
-0.010588
-0.002349
-0.002561
-0.002800
0.001183
0.591800
-0.006186
-0.000266
-0.054470
0.011391
0.004468
0.003587
-0.888104
0.028859
-0.077527
0.052805
-0.004664
0.004218
-0.005535
0.088626
-0.003118
-0.005744
0.000630
-0.108687
-0.055850
-0.015395
-0.376277
0.004839
-0.003696
-0.321421
0.202120
-0.002272
-0.001959
-0.012402
-0.142626
0.006059
-0.007449
-0.005487
-0.002290
-0.000936
-0.055984
-0.009521
-0.018495
-0.087981
0.007339
-0.041295
0.030952
0.015802
0.573035
7.273940
-3.881901
-0.005350
-0.000525
-0.004508
0.009645
0.012174
0.002588
-0.054215
-0.469349
-0.393956
0.034253
-0.459090
-0.088523
-0.403251
-0.333970
0.010972
0.009437
-0.577843
-0.181987
-0.059066
-0.059816
-0.007097
-0.004381
-0.825097
-0.257664
-1.086922
-1.177419
-0.443640
-0.359664
-0.447722
-0.378287
-0.067027
-0.560974
-0.347739
-0.259106
-0.019292
0.012220
0.078256
-0.483846
-0.034397
0.054755
0.011875
-0.516399
-0.033157
0.015487
0.102528
-0.079435
-0.005115
-0.095064
-0.172179
-0.013101
-0.025504
0.132944
-0.038082
-0.038417
-0.100225
-0.049007
-0.109487
-0.298018
0.014059
-1.269039
-1.084268
-1.019472
0.078715
0.007204
0.075650
0.069588
0.069777
-0.111317
0.082765
0.091224
-0.051970
-0.006690
0.054885
0.753338
0.512824
1.232594
-0.015621
3.181961
3.107560
1.162876
0.507362
1.145039
0.356282
2.677567
1.624536
0.198386
1.199376
1.090861
0.364511
3.281230
2.892160
1.068841
0.517868
1.033654
0.748279
3.136570
0.965730
1.311587
0.862435
0.583256
1.379136
1.081877
0.659596
0.439821
3.175106
1.329253
1.322690
-2.214270
1.510179
2.286441
0.334068
1.194603
1.605675
2.110952
0.405740
1.101322
3.197472
-1.140239
0.664532
1.784257
-5.465345
5.046473
3.719830
0.515847
0.258176
1.271649
0.715931
0.801483
1.006558
0.926853
1.169175
-1.325712
1.051617
0.973580
0.323625
0.738842
1.026836
1.232245
1.305968
-0.574803
1.051607
1.171519
0.407876
0.241531
0.699537
1.094761
1.278936
1.255351
-0.212178
0.857544
0.875149
1.206808
-1.470249
0.827327
0.937563
1.020849
1.285179
0.118984
0.991438
0.724150
2.287888
0.165792
0.886265
0.877676
0.797427
1.050908
1.274560
1.154485
0.931079
0.738321
0.871640
0.918767
1.541043
0.894030
0.721867
0.924997
1.171454
0.324457
1.051946
0.749895
0.847604
0.886676
0.712944
0.877058
0.958454
0.807960
0.804457
0.952194
1.702806
0.669698
1.716101
0.810558
1.504127
0.622987
1.454437
0.732543
0.763442
1.026156
0.967110
3.345142
0.047036
0.802131
1.140327
0.922035
1.144596
0.766483
1.157672
0.938743
1.241105
7.043260
0.007616
9.973819
-0.126074
4.811728
0.409864
0.471367
4.209845
0.875965
0.435914
0.761900
1.290571
1.061180
0.810595
1.380210
0.569789
3.977755
-0.629477
3.711387
-0.431243
3.379261
-2.934496
-3.245533
-4.519728
-7.473290
1.307574
1.017569
0.900540
0.800221
1.357726
1.296707
0.857210
1.175564
0.765833
0.995723
1.377711
0.812330
1.235592
1.123129
1.223676
0.662476
1.187123
3.119889
1.230376
0.663449
0.804071
0.933013
0.800506
0.857080
-0.296868
0.704691
2.958777
1.333201
1.062504
1.065258
1.021546
0.541842
0.540763
1.118065
1.266872
1.144023
0.629535
0.737879
-0.101495
0.532479
1.136614
0.179208
1.013405
0.673532
1.891514
0.799499
0.703472
1.146725
1.295593
0.773265
1.453352
0.820112
0.802300
0.754180
0.932965
1.124679
0.808149
0.655474
1.434315
1.313455
3.153620
7.862669
-2.511214
0.991631
1.200338
1.141670
1.227625
0.991370
1.315553
-0.005213
-0.099303
-0.161183
-0.098205
-0.078038
-0.004561
-0.045732
-0.526824
-0.113990
-0.006721
-0.018280
-0.000506
-0.002288
0.000007
-0.001054
0.000326
-0.000541
-0.384264
-0.320303
0.005754
0.017862
0.024835
-0.216248
-0.348976
0.032606
0.016035
-0.008098
-0.000503
-0.539404
-0.007057
-0.365131
-0.312548
0.002617
0.004858
0.003024
0.001359
-0.007525
-0.350585
-0.014141
-0.030363
-0.015943
-0.390323
-0.032098
-0.074200
-0.083485
0.000553
-0.000075
-0.000465
-0.001609
-0.002930
-0.000762
-0.135116
-0.079437
-0.003228
-0.002897
-0.065957
-1.098432
-0.000856
-0.009667
0.000010
0.060650
0.034428
-0.005891
0.000686
-0.017720
-0.009914
-0.110447
-0.014174
-0.377782
0.580136
0.873004
-0.116639
-0.000467
0.003163
-0.322703
0.543810
0.641803
-0.007720
-0.403946
0.092653
-0.313131
1.362051
0.191863
-0.054047
0.005221
0.009873
0.006388
-0.011853
-0.003364
-0.001640
-0.001893
-0.003108
-0.003941
0.502634
0.706312
-0.363873
0.168150
-0.039732
0.143563
-0.033012
-0.002680
0.003571
2.406809
-7.081647
0.492674
-0.076415
-0.006584
0.063077
-0.036595
0.007346
-0.015500
-0.007658
-0.298958
-0.000935
-0.002807
-0.420955
-0.661718
0.303316
-0.366639
-1.122599
0.189386
0.509352
-0.195577
-0.067116
0.000912
-0.001834
-0.005664
-0.023075
0.024564
-0.005728
-0.002627
0.001616
0.004561
-0.002847
-0.012584
-0.012425
-0.003001
-0.014118
0.010399
-0.006994
-0.002812
-0.001994
-0.605708
0.063630
0.076848
-0.009758
-0.073011
-0.125762
0.174809
0.087557
-0.016962
0.046243
-0.656687
0.099842
-0.052345
-0.010086
-0.015460
-0.213321
0.814407
-0.654952
-0.206941
-0.025589
-0.662483
0.787011
-0.002064
-0.001439
-0.001918
-0.002549
-0.002857
-0.003885
-0.002617
-0.002823
-0.002681
-0.003282
-0.002585
-0.005453
-0.005048
-0.002151
-0.000621
0.006962
-0.099559
-0.010050
-0.211423
-0.008109
-0.002182
-0.002460
-0.002667
-0.010479
-0.007530
-0.003717
-0.001575
-0.001334
-0.011570
-0.006056
0.106045
-0.359618
0.797468
-0.977112
0.629680
0.344479
-0.051196
-6.421619
5.631572
10.062965
0.231711
0.848927
-0.114067
-0.068263
3.321229
-0.733999
-0.244220
-0.001296
-0.011289
-0.000505
0.051416
0.077279
-0.245034
-0.002308
-1.042866
1.567988
-3.780772
-0.402858
-0.360968
-0.004248
-0.009547
-0.001067
-0.048186
-6.061599
-0.009164
0.002537
-0.002603
-0.002345
1.381665
-0.001659
0.001737
-0.005995
-0.003177
-0.081294
-0.030830
-0.001984
1.273324
0.054169
-0.004791
0.011394
-0.057173
0.001967
-0.014194
0.053070
-0.013684
0.000069
-0.022223
0.014831
0.007755
0.341280
-0.004838
-0.001384
-0.450833
-0.109510
-0.401282
-0.001897
-0.017677
0.000032
-0.471068
0.004119
-0.020416
-0.120164
-0.024098
-0.022260
-0.030187
-0.000172
-0.647387
-0.017149
-0.238211
-0.046238
0.080102
0.162161
-0.002531
-0.002411
-0.001528
-0.004206
-0.004829
-0.001106
0.057044
0.013393
0.019665
0.018495
-0.013331
-0.002563
0.002169
-0.028060
-0.053431
-0.017398
-0.055936
-0.055493
0.002197
-0.029274
-0.060759
-0.035362
0.047931
-0.071108
-0.044801
0.080094
0.102264
0.030692
-0.039527
-0.014386
-0.012254
0.075984
0.009377
-0.057220
-0.022646
-0.017773
0.088676
-0.083723
-0.016875
-0.060810
0.012105
-0.011587
-0.039433
-0.028109
-0.054230
-0.013826
0.021468
0.012496
-0.077267
-0.083138
-0.001092
-0.001923
0.054225
-0.056735
0.057700
0.001226
-0.053386
0.149717
-0.043096
-0.016006
-0.003519
-0.075165
-0.007447
0.081742
0.000321
-0.074244
-0.049731
-0.070421
-0.018356
-0.069586
-0.039340
-0.112304
-0.100170
0.038327
0.005109
-0.078774
0.003023
-0.101892
0.051507
-0.070702
-0.745550
-1.180221
-1.084764
-0.659232
-1.518126
-1.457102
-0.874731
-1.015692
-1.181870
-0.809616
-1.255073
-1.040599
-1.218296
-0.947275
-0.722233
-1.006456
-1.125625
-1.042527
-1.570140
-0.899402
-0.422925
-0.719323
-0.863458
-1.588129
-1.582944
-0.448742
-0.897300
-0.648900
-1.321969
-0.713796
-0.578067
-1.502220
-1.196957
-1.054763
-0.890725
-0.840423
-0.770978
-1.432559
-1.049219
-1.317894
-0.581693
-1.349376
-0.838801
-0.844055
-0.815144
-1.600729
-0.851018
-0.813767
-1.093937
-1.060443
-0.577405
-1.321040
-0.519743
-0.549799
-1.019769
-1.164768
-0.997945
-1.192371
-0.679717
-1.278817
-0.368406
-1.433651
-1.473141
-0.610584
-0.725272
-1.009708
-0.827392
-0.769460
-1.054269
-1.027393
-1.135801
-1.396888
-0.864501
-0.644657
-1.397073
-1.316563
-1.136930
-1.079499
-0.912704
-0.671785
-1.168990
-0.809321
-0.801498
-1.290373
-0.966504
-1.284523
-0.611410
-1.155473
-0.929169
-0.942776
-1.104377
-0.649463
-1.097297
-1.050663
-1.234618
-0.830842
-0.799502
-0.661133
-1.088484
-1.015418
-1.240952
-0.659800
-0.634870
-1.257585
-1.189376
-0.782760
-0.764060
-1.339412
-0.832105
-1.339812
-0.819899
-0.646777
-0.921728
-1.307421
-1.257977
-0.520997
-1.296768
-0.831300
-0.916594
-0.759278
-0.975595
-0.935341
-1.178948
-1.026323
-0.732593
-0.547091
-1.142032
-0.958455
0.117221
-2.346999
-1.801074
-0.688854
-1.470486
-2.418081
-0.427338
-0.793367
-1.519940
-1.010676
-0.813250
-1.468715
-1.176111
-0.767553
-0.852199
-1.548145
-1.088167
-0.861112
-0.765857
-1.398891
-0.876673
-1.557628
-0.806841
-0.712511
-0.224297
-0.965159
-0.826812
-0.461788
-1.219237
-1.451255
-1.061985
-1.092621
-0.822006
-0.988067
-1.359692
-1.206300
-0.852164
-1.292503
-0.661254
-1.108148
-1.184368
-1.045586
-0.674107
-1.026888
-0.809352
-0.933663
-1.370038
-1.414668
-0.977331
-1.102119
-0.650227
-1.348014
-0.623979
-1.116920
-0.613276
-1.137754
-1.214906
-1.176254
-1.046345
-0.804809
-1.057665
-1.307864
-0.933660
-0.658596
-0.964527
-1.111546
-0.659184
-0.808677
-1.248471
-1.046891
-0.713164
-1.357477
-0.908633
-0.937057
-1.477015
-0.483582
-0.459140
-0.909797
-1.351871
-0.822055
-0.820469
-1.509643
-0.549700
-1.494854
-1.488845
-1.213203
-0.893881
-1.296745
-0.640922
-0.516923
-1.453396
-0.901306
-1.446655
-1.498890
-0.941342
-1.094141
-1.112370
-1.105061
-1.359455
-1.113873
-1.034705
-0.995442
